formula,group,  P [GPa],  lambda,  w_log [K],   mu,     Tc [K], reference
 CeH9  ,  194,      100,        ,           , 0.10,      53.61,  https://doi.org/10.1103/PhysRevLett.119.107001
 CeH9  ,  194,      100,        ,           , 0.13,      47.33,  https://doi.org/10.1103/PhysRevLett.119.107001
 CeH10 ,  225,      200,        ,           , 0.10,      59.75,  https://doi.org/10.1103/PhysRevLett.119.107001
 CeH10 ,  225,      200,        ,           , 0.13,      49.28,  https://doi.org/10.1103/PhysRevLett.119.107001
  YH3  ,   11,      120,   0.676,    601.310, 0.10,         19,  https://doi.org/10.1088/1361-648X/aa787d
  YH3  ,  194,      120,   0.417,   1162.113, 0.10,          6,  https://doi.org/10.1088/1361-648X/aa787d
  YH3  ,   11,      200,   0.534,    569.413, 0.10,          9,  https://doi.org/10.1088/1361-648X/aa787d
  YH3  ,  194,      200,   0.232,    658.749, 0.10,          0,  https://doi.org/10.1088/1361-648X/aa787d
  YH3  ,  139,      200,   0.270,    579.837, 0.10,          0,  https://doi.org/10.1088/1361-648X/aa787d
  YH4  ,  139,      120,   0.980,   1388.606, 0.10,         94,  https://doi.org/10.1088/1361-648X/aa787d
  YH4  ,  139,      200,   0.764,   1289.016, 0.10,         55,  https://doi.org/10.1088/1361-648X/aa787d
 LaH4  ,  139,      300,    0.43,       1624, 0.10,         10,  https://doi.org/10.1073/pnas.1704505114
 LaH4  ,  139,      300,    0.43,       1624, 0.13,          5,  https://doi.org/10.1073/pnas.1704505114
 LaH8  ,   12,      300,    1.12,       1591, 0.10,        131,  https://doi.org/10.1073/pnas.1704505114
 LaH8  ,   12,      300,    1.12,       1591, 0.13,        114,  https://doi.org/10.1073/pnas.1704505114
 LaH10 ,  225,      210,    3.41,        848, 0.10,        238,  https://doi.org/10.1073/pnas.1704505114
 LaH10 ,  225,      210,    3.41,        848, 0.13,        219,  https://doi.org/10.1073/pnas.1704505114
 LaH10 ,  225,      250,    2.29,       1253, 0.10,        232,  https://doi.org/10.1073/pnas.1704505114
 LaH10 ,  225,      250,    2.29,       1253, 0.13,        212,  https://doi.org/10.1073/pnas.1704505114
 LaH10 ,  225,      300,    1.78,       1488, 0.10,        215,  https://doi.org/10.1073/pnas.1704505114
 LaH10 ,  225,      300,    1.78,       1488, 0.13,        196,  https://doi.org/10.1073/pnas.1704505114
  YH10 ,  229,      250,    2.58,       1282, 0.10,        265,  https://doi.org/10.1073/pnas.1704505114
  YH10 ,  229,      250,    2.58,       1282, 0.13,        244,  https://doi.org/10.1073/pnas.1704505114
  YH10 ,  229,      300,    2.06,       1511, 0.10,        255,  https://doi.org/10.1073/pnas.1704505114
  YH10 ,  229,      300,    2.06,       1511, 0.13,        233,  https://doi.org/10.1073/pnas.1704505114